
Host: saads-mbp.home

Timers On : Wed Aug  3 19:49:02 2022
Timers Off: Sat Aug  6 23:10:47 2022

Wall Time:    74360.81 seconds

                                                       Time (seconds)
Module                                       User      System        Wall        Calls

--------------------------------------------------------------------------------------

**************************************************************************************
