
Host: saads-MacBook-Pro.local

Timers On : Fri Aug 26 17:33:06 2022
Timers Off: Fri Aug 26 18:27:29 2022

Wall Time:     3033.94 seconds

                                                       Time (seconds)
Module                                       User      System        Wall        Calls

--------------------------------------------------------------------------------------

**************************************************************************************
