
Host: saads-MBP

Timers On : Tue Jul  5 20:12:40 2022
Timers Off: Tue Jul  5 20:34:00 2022

Wall Time:     1280.36 seconds

                                                       Time (seconds)
Module                                       User      System        Wall        Calls

--------------------------------------------------------------------------------------

**************************************************************************************

Host: saads-MBP

Timers On : Tue Jul  5 18:08:35 2022
Timers Off: Tue Jul  5 20:34:01 2022

Wall Time:     1786.01 seconds

                                                       Time (seconds)
Module                                       User      System        Wall        Calls

--------------------------------------------------------------------------------------

**************************************************************************************

Host: saads-MBP

Timers On : Tue Jul  5 20:38:28 2022
Timers Off: Tue Jul  5 22:57:48 2022

Wall Time:     8360.59 seconds

                                                       Time (seconds)
Module                                       User      System        Wall        Calls

--------------------------------------------------------------------------------------

**************************************************************************************

Host: saads-MBP

Timers On : Tue Jul  5 22:57:51 2022
Timers Off: Tue Jul  5 22:58:10 2022

Wall Time:       18.80 seconds

                                                       Time (seconds)
Module                                       User      System        Wall        Calls

--------------------------------------------------------------------------------------

**************************************************************************************

Host: saads-MBP

Timers On : Tue Jul  5 22:58:12 2022
Timers Off: Tue Jul  5 22:58:36 2022

Wall Time:       24.20 seconds

                                                       Time (seconds)
Module                                       User      System        Wall        Calls

--------------------------------------------------------------------------------------

**************************************************************************************

Host: saads-MBP

Timers On : Tue Jul  5 22:58:39 2022
Timers Off: Tue Jul  5 22:59:43 2022

Wall Time:       63.65 seconds

                                                       Time (seconds)
Module                                       User      System        Wall        Calls

--------------------------------------------------------------------------------------

**************************************************************************************

Host: saads-MBP

Timers On : Tue Jul  5 22:59:45 2022
Timers Off: Tue Jul  5 23:01:48 2022

Wall Time:      122.75 seconds

                                                       Time (seconds)
Module                                       User      System        Wall        Calls

--------------------------------------------------------------------------------------

**************************************************************************************

Host: saads-MBP

Timers On : Tue Jul  5 23:01:50 2022
Timers Off: Tue Jul  5 23:06:59 2022

Wall Time:      308.68 seconds

                                                       Time (seconds)
Module                                       User      System        Wall        Calls

--------------------------------------------------------------------------------------

**************************************************************************************

Host: saads-MBP

Timers On : Tue Jul  5 23:07:01 2022
Timers Off: Tue Jul  5 23:13:23 2022

Wall Time:      381.84 seconds

                                                       Time (seconds)
Module                                       User      System        Wall        Calls

--------------------------------------------------------------------------------------

**************************************************************************************

Host: saads-MBP

Timers On : Tue Jul  5 20:38:10 2022
Timers Off: Tue Jul  5 23:14:21 2022

Wall Time:     9370.29 seconds

                                                       Time (seconds)
Module                                       User      System        Wall        Calls

--------------------------------------------------------------------------------------

**************************************************************************************

Host: saads-MBP

Timers On : Tue Jul  5 23:13:25 2022
Timers Off: Tue Jul  5 23:21:28 2022

Wall Time:      482.56 seconds

                                                       Time (seconds)
Module                                       User      System        Wall        Calls

--------------------------------------------------------------------------------------

**************************************************************************************

Host: saads-MBP

Timers On : Tue Jul  5 23:21:30 2022
Timers Off: Tue Jul  5 23:21:38 2022

Wall Time:        7.19 seconds

                                                       Time (seconds)
Module                                       User      System        Wall        Calls

--------------------------------------------------------------------------------------

**************************************************************************************

Host: saads-MBP

Timers On : Tue Jul  5 23:21:40 2022
Timers Off: Tue Jul  5 23:22:01 2022

Wall Time:       20.83 seconds

                                                       Time (seconds)
Module                                       User      System        Wall        Calls

--------------------------------------------------------------------------------------

**************************************************************************************

Host: saads-MBP

Timers On : Tue Jul  5 23:33:56 2022
Timers Off: Wed Jul  6 01:01:10 2022

Wall Time:     5234.73 seconds

                                                       Time (seconds)
Module                                       User      System        Wall        Calls

--------------------------------------------------------------------------------------

**************************************************************************************

Host: saads-MBP

Timers On : Wed Jul  6 01:01:13 2022
Timers Off: Wed Jul  6 01:05:57 2022

Wall Time:      284.02 seconds

                                                       Time (seconds)
Module                                       User      System        Wall        Calls

--------------------------------------------------------------------------------------

**************************************************************************************

Host: saads-MBP

Timers On : Tue Jul  5 23:22:03 2022
Timers Off: Wed Jul  6 01:13:18 2022

Wall Time:     6674.19 seconds

                                                       Time (seconds)
Module                                       User      System        Wall        Calls

--------------------------------------------------------------------------------------

**************************************************************************************

Host: saads-MacBook-Pro.local

Timers On : Wed Jul  6 01:13:20 2022
Timers Off: Tue Jul 19 10:22:03 2022

Wall Time:   331894.89 seconds

                                                       Time (seconds)
Module                                       User      System        Wall        Calls

--------------------------------------------------------------------------------------

**************************************************************************************

Host: saads-MacBook-Pro.local

Timers On : Wed Jul  6 01:06:00 2022
Timers Off: Tue Jul 19 10:22:03 2022

Wall Time:   332335.27 seconds

                                                       Time (seconds)
Module                                       User      System        Wall        Calls

--------------------------------------------------------------------------------------

**************************************************************************************

Host: saads-MacBook-Pro.local

Timers On : Tue Jul 19 10:27:46 2022
Timers Off: Tue Jul 19 10:27:57 2022

Wall Time:       10.59 seconds

                                                       Time (seconds)
Module                                       User      System        Wall        Calls

--------------------------------------------------------------------------------------

**************************************************************************************

Host: saads-MacBook-Pro.local

Timers On : Tue Jul 19 10:27:59 2022
Timers Off: Tue Jul 19 10:28:24 2022

Wall Time:       24.85 seconds

                                                       Time (seconds)
Module                                       User      System        Wall        Calls

--------------------------------------------------------------------------------------

**************************************************************************************

Host: saads-MacBook-Pro.local

Timers On : Tue Jul 19 10:28:26 2022
Timers Off: Tue Jul 19 10:28:42 2022

Wall Time:       15.30 seconds

                                                       Time (seconds)
Module                                       User      System        Wall        Calls

--------------------------------------------------------------------------------------

**************************************************************************************

Host: saads-MacBook-Pro.local

Timers On : Tue Jul 19 10:28:44 2022
Timers Off: Tue Jul 19 10:29:02 2022

Wall Time:       17.73 seconds

                                                       Time (seconds)
Module                                       User      System        Wall        Calls

--------------------------------------------------------------------------------------

**************************************************************************************

Host: saads-MacBook-Pro.local

Timers On : Tue Jul 19 10:29:05 2022
Timers Off: Tue Jul 19 10:29:21 2022

Wall Time:       16.02 seconds

                                                       Time (seconds)
Module                                       User      System        Wall        Calls

--------------------------------------------------------------------------------------

**************************************************************************************

Host: saads-MacBook-Pro.local

Timers On : Tue Jul 19 10:29:23 2022
Timers Off: Tue Jul 19 10:30:46 2022

Wall Time:       82.49 seconds

                                                       Time (seconds)
Module                                       User      System        Wall        Calls

--------------------------------------------------------------------------------------

**************************************************************************************

Host: saads-MacBook-Pro.local

Timers On : Tue Jul 19 10:30:48 2022
Timers Off: Tue Jul 19 10:48:15 2022

Wall Time:     1047.24 seconds

                                                       Time (seconds)
Module                                       User      System        Wall        Calls

--------------------------------------------------------------------------------------

**************************************************************************************

Host: saads-MacBook-Pro.local

Timers On : Tue Jul 19 10:48:18 2022
Timers Off: Tue Jul 19 10:50:02 2022

Wall Time:      103.41 seconds

                                                       Time (seconds)
Module                                       User      System        Wall        Calls

--------------------------------------------------------------------------------------

**************************************************************************************

Host: saads-MacBook-Pro.local

Timers On : Tue Jul 19 10:50:04 2022
Timers Off: Tue Jul 19 10:51:22 2022

Wall Time:       77.79 seconds

                                                       Time (seconds)
Module                                       User      System        Wall        Calls

--------------------------------------------------------------------------------------

**************************************************************************************

Host: saads-MacBook-Pro.local

Timers On : Tue Jul 19 10:51:25 2022
Timers Off: Tue Jul 19 11:00:09 2022

Wall Time:      524.44 seconds

                                                       Time (seconds)
Module                                       User      System        Wall        Calls

--------------------------------------------------------------------------------------

**************************************************************************************

Host: saads-MacBook-Pro.local

Timers On : Tue Jul 19 11:00:12 2022
Timers Off: Tue Jul 19 11:03:16 2022

Wall Time:      184.60 seconds

                                                       Time (seconds)
Module                                       User      System        Wall        Calls

--------------------------------------------------------------------------------------

**************************************************************************************

Host: saads-MacBook-Pro.local

Timers On : Tue Jul 19 11:03:19 2022
Timers Off: Tue Jul 19 11:07:50 2022

Wall Time:      270.85 seconds

                                                       Time (seconds)
Module                                       User      System        Wall        Calls

--------------------------------------------------------------------------------------

**************************************************************************************

Host: saads-MacBook-Pro.local

Timers On : Tue Jul 19 11:07:52 2022
Timers Off: Tue Jul 19 11:30:02 2022

Wall Time:     1330.10 seconds

                                                       Time (seconds)
Module                                       User      System        Wall        Calls

--------------------------------------------------------------------------------------

**************************************************************************************

Host: saads-MacBook-Pro.local

Timers On : Tue Jul 19 11:30:05 2022
Timers Off: Tue Jul 19 11:59:21 2022

Wall Time:     1756.28 seconds

                                                       Time (seconds)
Module                                       User      System        Wall        Calls

--------------------------------------------------------------------------------------

**************************************************************************************
