
Host: saads-MBP

Timers On : Tue Jul  5 20:12:40 2022
Timers Off: Tue Jul  5 20:34:00 2022

Wall Time:     1280.36 seconds

                                                       Time (seconds)
Module                                       User      System        Wall        Calls

--------------------------------------------------------------------------------------

**************************************************************************************

Host: saads-MBP

Timers On : Tue Jul  5 18:08:35 2022
Timers Off: Tue Jul  5 20:34:01 2022

Wall Time:     1786.01 seconds

                                                       Time (seconds)
Module                                       User      System        Wall        Calls

--------------------------------------------------------------------------------------

**************************************************************************************

Host: saads-MBP

Timers On : Tue Jul  5 20:38:28 2022
Timers Off: Tue Jul  5 22:57:48 2022

Wall Time:     8360.59 seconds

                                                       Time (seconds)
Module                                       User      System        Wall        Calls

--------------------------------------------------------------------------------------

**************************************************************************************

Host: saads-MBP

Timers On : Tue Jul  5 22:57:51 2022
Timers Off: Tue Jul  5 22:58:10 2022

Wall Time:       18.80 seconds

                                                       Time (seconds)
Module                                       User      System        Wall        Calls

--------------------------------------------------------------------------------------

**************************************************************************************

Host: saads-MBP

Timers On : Tue Jul  5 22:58:12 2022
Timers Off: Tue Jul  5 22:58:36 2022

Wall Time:       24.20 seconds

                                                       Time (seconds)
Module                                       User      System        Wall        Calls

--------------------------------------------------------------------------------------

**************************************************************************************

Host: saads-MBP

Timers On : Tue Jul  5 22:58:39 2022
Timers Off: Tue Jul  5 22:59:43 2022

Wall Time:       63.65 seconds

                                                       Time (seconds)
Module                                       User      System        Wall        Calls

--------------------------------------------------------------------------------------

**************************************************************************************

Host: saads-MBP

Timers On : Tue Jul  5 22:59:45 2022
Timers Off: Tue Jul  5 23:01:48 2022

Wall Time:      122.75 seconds

                                                       Time (seconds)
Module                                       User      System        Wall        Calls

--------------------------------------------------------------------------------------

**************************************************************************************

Host: saads-MBP

Timers On : Tue Jul  5 23:01:50 2022
Timers Off: Tue Jul  5 23:06:59 2022

Wall Time:      308.68 seconds

                                                       Time (seconds)
Module                                       User      System        Wall        Calls

--------------------------------------------------------------------------------------

**************************************************************************************

Host: saads-MBP

Timers On : Tue Jul  5 23:07:01 2022
Timers Off: Tue Jul  5 23:13:23 2022

Wall Time:      381.84 seconds

                                                       Time (seconds)
Module                                       User      System        Wall        Calls

--------------------------------------------------------------------------------------

**************************************************************************************

Host: saads-MBP

Timers On : Tue Jul  5 20:38:10 2022
Timers Off: Tue Jul  5 23:14:21 2022

Wall Time:     9370.29 seconds

                                                       Time (seconds)
Module                                       User      System        Wall        Calls

--------------------------------------------------------------------------------------

**************************************************************************************

Host: saads-MBP

Timers On : Tue Jul  5 23:13:25 2022
Timers Off: Tue Jul  5 23:21:28 2022

Wall Time:      482.56 seconds

                                                       Time (seconds)
Module                                       User      System        Wall        Calls

--------------------------------------------------------------------------------------

**************************************************************************************

Host: saads-MBP

Timers On : Tue Jul  5 23:21:30 2022
Timers Off: Tue Jul  5 23:21:38 2022

Wall Time:        7.19 seconds

                                                       Time (seconds)
Module                                       User      System        Wall        Calls

--------------------------------------------------------------------------------------

**************************************************************************************

Host: saads-MBP

Timers On : Tue Jul  5 23:21:40 2022
Timers Off: Tue Jul  5 23:22:01 2022

Wall Time:       20.83 seconds

                                                       Time (seconds)
Module                                       User      System        Wall        Calls

--------------------------------------------------------------------------------------

**************************************************************************************

Host: saads-MBP

Timers On : Tue Jul  5 23:33:56 2022
Timers Off: Wed Jul  6 01:01:10 2022

Wall Time:     5234.73 seconds

                                                       Time (seconds)
Module                                       User      System        Wall        Calls

--------------------------------------------------------------------------------------

**************************************************************************************

Host: saads-MBP

Timers On : Wed Jul  6 01:01:13 2022
Timers Off: Wed Jul  6 01:05:57 2022

Wall Time:      284.02 seconds

                                                       Time (seconds)
Module                                       User      System        Wall        Calls

--------------------------------------------------------------------------------------

**************************************************************************************

Host: saads-MBP

Timers On : Tue Jul  5 23:22:03 2022
Timers Off: Wed Jul  6 01:13:18 2022

Wall Time:     6674.19 seconds

                                                       Time (seconds)
Module                                       User      System        Wall        Calls

--------------------------------------------------------------------------------------

**************************************************************************************
