
Host: saads-MacBook-Pro.local

Timers On : Thu Jul  7 17:49:18 2022
Timers Off: Thu Jul  7 18:41:13 2022

Wall Time:     3114.59 seconds

                                                       Time (seconds)
Module                                       User      System        Wall        Calls

--------------------------------------------------------------------------------------

**************************************************************************************
