
Host: saads-MacBook-Pro.local

Timers On : Fri Jul  1 10:37:48 2022
Timers Off: Fri Jul  1 10:41:54 2022

Wall Time:      245.84 seconds

                                                       Time (seconds)
Module                                       User      System        Wall        Calls

--------------------------------------------------------------------------------------

**************************************************************************************
